      18
 i =        1, E =       -82.3027193583
  O         9.8133609068       11.7364152577       10.0910773956
  C         9.8129279114       10.5415199460       10.0637321411
  O         9.8719669552        9.6896673078       11.2946984254
  O         9.8998252966        9.6800799728        8.8293699864
  C         9.8958281866       10.2180923039        7.4754795974
  C         9.9261222288       10.2606041207       12.6062817800
  H        10.8106645677       11.0836705753       12.5722843535
  H         8.9891386264       11.0607025306       12.6400087656
  H         9.0313438137       11.0473696522        7.4727006505
  H        10.8594731225       10.9826498580        7.5325703851
  C         9.9181855699        9.2353845653        6.1007583231
  C        10.0497117097        9.2873450377       13.8951183754
  H         9.0356596995        8.4366615298        5.6558054050
  H        10.6924977926        8.3378612747        5.6389102810
  H         9.3303087755        8.3710482293       14.1974296188
  H        11.0638075616        8.6410355115       14.1805605087
  H         9.8310283832        9.9678258783        5.2573778527
  H         9.9161083859        9.9633301621       14.7736909564
      18
 i =        1, E =       -82.3027193593
  O         9.8133609068       11.7364152577       10.0910773956
  C         9.8129279114       10.5415199460       10.0637321411
  O         9.8719669552        9.6896673078       11.2946984254
  O         9.8998252966        9.6800799728        8.8293699864
  C         9.8958281866       10.2180923039        7.4754795974
  C         9.9261222288       10.2606041207       12.6062817800
  H        10.8106645677       11.0836705753       12.5722843535
  H         8.9891386264       11.0607025306       12.6400087656
  H         9.0313438137       11.0473696522        7.4727006505
  H        10.8594731225       10.9826498580        7.5325703851
  C         9.9181855699        9.2353845653        6.1007583231
  C        10.0497117097        9.2873450377       13.8951183754
  H         9.0356596995        8.4366615298        5.6558054050
  H        10.6924977926        8.3378612747        5.6389102810
  H         9.3303087755        8.3710482293       14.1974296188
  H        11.0638075616        8.6410355115       14.1805605087
  H         9.8310283832        9.9678258783        5.2573778527
  H         9.9161083859        9.9633301621       14.7736909564
      18
 i =        2, E =       -82.4180716161
  O         9.7970898056       11.6798693935       10.0681865603
  C         9.9026110167       10.4809682605       10.0483252226
  O         9.9140137271        9.6636868849       11.2250152505
  O         9.9130332977        9.6472745093        8.8664138715
  C         9.9023132609       10.2276285661        7.5095647206
  C         9.9255985996       10.2844515851       12.5470548694
  H        10.7368139631       10.9216610004       12.6338661142
  H         9.0963862013       10.8759205108       12.7325929310
  H         9.1171812534       10.8570857043        7.3753804255
  H        10.7512637867       10.8130820609        7.4256523435
  C         9.8349103612        9.2616978094        6.1476252777
  C        10.0397638563        9.3317525313       13.8392278328
  H         8.9936113394        8.6105723175        5.9002881785
  H        10.7350683342        8.5878612747        5.8780666333
  H         9.3097629994        8.5415673128       14.0130502881
  H        10.9730364998        8.8449366071       14.0186693490
  H         9.8941777985        9.9991367000        5.3206938511
  H         9.9506773889        9.9598159867       14.7235064885
      18
 i =        3, E =       -82.4390844143
  O         9.8247378225       11.6486577317       10.0752706235
  C         9.8680300878       10.4447795268       10.0423672127
  O         9.9362501489        9.6081623793       11.1624911143
  O         9.9161551543        9.5768673495        8.9281192000
  C         9.9073519353       10.1735917126        7.5578201815
  C         9.9430993921       10.2532682372       12.5000240227
  H        10.8132777000       10.9212665263       12.6367638230
  H         9.0131358062       10.8487119296       12.7415968640
  H         9.0155731553       10.8569539316        7.3608179389
  H        10.8227659175       10.7734062047        7.3784580610
  C         9.9299815580        9.2870203296        6.1749358108
  C        10.0247646762        9.3365241997       13.8215083389
  H         8.9470070010        8.6895231384        6.0476522944
  H        10.7165399196        8.6621846200        5.9868186799
  H         9.2473472539        8.5735542154       13.9155549733
  H        11.0308910620        8.8858096586       13.9154463079
  H         9.8918925927       10.0147921993        5.3733697535
  H         9.9465089112       10.0002941907       14.6900738422
      18
 i =        4, E =       -82.4461486963
  O         9.8268168267       11.6069671287       10.0746569912
  C         9.8704023067       10.3959370447       10.0484344135
  O         9.9285142126        9.5963789687       11.1807360093
  O         9.8995005301        9.5717288629        8.9167479167
  C         9.9242687809       10.1810943458        7.5411753249
  C         9.9253394330       10.2610649702       12.5280131545
  H        10.8505516777       10.9399941554       12.5850393879
  H         8.9698557708       10.8594855944       12.6558320885
  H         8.9740058252       10.8600853786        7.4241048988
  H        10.8733059353       10.7932081058        7.4154030257
  C         9.7938537314        9.2774655796        6.2450709399
  C        10.0522587259        9.3156647444       13.7792923044
  H         8.9653283855        8.7103380651        6.0824277586
  H        10.8132275393        8.6615427452        6.1053104580
  H         9.2182271841        8.5824804544       13.8550280179
  H        11.0616145423        8.8651989609       13.8657354493
  H         9.8961734830       10.0417372278        5.4207093449
  H         9.9351297134       10.0220379675       14.6301251584
      18
 i =        5, E =       -82.4666339648
  O         9.8135325959       11.5706272750       10.0656568234
  C         9.8979316559       10.3543248644       10.0539928700
  O         9.9074119203        9.5904724914       11.2101900136
  O         9.8919851343        9.5790289093        8.8856640296
  C         9.8832999909       10.2226785126        7.5133455259
  C         9.9193464204       10.2870015763       12.5465792677
  H        10.8102657938       10.9556181198       12.5263710326
  H         9.0038119054       10.8643098704       12.5659139064
  H         9.0179698117       10.8754179978        7.5115323224
  H        10.8398315113       10.8002655644        7.4742536669
  C         9.8908493129        9.3014658997        6.2957694659
  C        10.0680026848        9.3121634289       13.7164695561
  H         8.9366363883        8.7041343632        6.1605003401
  H        10.7877635425        8.6376262105        6.1464203098
  H         9.2465219720        8.5921582454       13.8253308164
  H        11.0288644286        8.8422082675       13.8416904568
  H         9.8805833063       10.0344812672        5.4699641994
  H         9.9328231673       10.0104620555       14.5808460165
      18
 i =        6, E =       -82.4760889345
  O         9.8322063107       11.5625446882       10.0873197641
  C         9.8537912446       10.3454790201       10.0314421607
  O         9.9279005651        9.5486169082       11.1447424369
  O         9.9225394289        9.5213574318        8.9150326325
  C         9.9088318238       10.2360151419        7.5710981487
  C         9.9665003587       10.2713696531       12.4673858138
  H        10.7612465957       10.9718148181       12.4972897534
  H         9.0311381468       10.8489925773       12.5525327489
  H         9.0582483580       10.8781313152        7.5415828121
  H        10.7880442865       10.8210971391        7.5160378080
  C         9.8877583457        9.3236407700        6.3626595395
  C        10.0190161196        9.3629540561       13.6881183362
  H         8.9645256201        8.7094757391        6.2225632915
  H        10.7362606759        8.6686076120        6.2123906689
  H         9.2633656609        8.5911683945       13.7707237408
  H        11.0141128721        8.8534340825       13.7698898070
  H         9.8900737485       10.0168768641        5.5045586105
  H         9.9414527196       10.0054055389       14.5883235427
      18
 i =        7, E =       -82.4836314565
  O         9.8103380999       11.5455291228       10.0541446508
  C         9.8860603893       10.3269884477       10.0541481392
  O         9.9322441662        9.4952987833       11.1283058532
  O         9.8989766432        9.5195911049        8.9476485381
  C         9.9167167994       10.2336683598        7.6127562332
  C         9.9259558874       10.2613375053       12.4328850125
  H        10.7687308743       10.9740729099       12.4572636643
  H         9.0246639840       10.8588680699       12.5150937475
  H         9.0376566962       10.8989717041        7.5770179109
  H        10.8135253344       10.8462030061        7.5529391572
  C         9.8729544536        9.3371339074        6.3964678836
  C        10.0495905906        9.3800111380       13.6554021904
  H         8.9656013429        8.7179122750        6.2884410316
  H        10.7396864809        8.6798804157        6.2881681429
  H         9.2483323377        8.6076125237       13.6969203217
  H        11.0056088144        8.8525482084       13.7312042514
  H         9.8935547789       10.0148567863        5.5253237008
  H         9.9439407032        9.9992364287       14.5576972461
      18
 i =        8, E =       -82.4882193065
  O         9.8092895467       11.5121966808       10.0604243174
  C         9.8861394609       10.2922063901       10.0395055101
  O         9.9267355588        9.5137658497       11.1507793606
  O         9.8921526941        9.4989479621        8.9437797995
  C         9.9051843260       10.2554102592        7.6400929556
  C         9.9302397193       10.2870238769       12.4425564937
  H        10.7902741626       10.9914351708       12.3812655364
  H         8.9851817871       10.8612453988       12.4460147642
  H         9.0193366727       10.9298071757        7.6326926869
  H        10.8446831221       10.8758223488        7.6042312140
  C         9.8660698964        9.3333209408        6.4482190424
  C        10.0449435216        9.3451336227       13.6051544800
  H         8.9665792437        8.7382194772        6.3621365658
  H        10.7503820483        8.6856899243        6.3683040226
  H         9.2338617434        8.6148850431       13.6564822456
  H        11.0149193340        8.8517107800       13.6825370759
  H         9.8937020838       10.0026158511        5.5640359651
  H         9.9480627261        9.9913407440       14.4989776253
      18
 i =        9, E =       -82.4917267854
  O         9.8181091063       11.5005237972       10.0596467477
  C         9.8640129708       10.2807573909       10.0469271305
  O         9.9277359477        9.4919044131       11.1443716584
  O         9.8937415910        9.5085659389        8.9396398076
  C         9.9120272427       10.2737523800        7.6582537963
  C         9.9313250528       10.2902752933       12.4095853054
  H        10.7765804011       10.9983330964       12.3512759357
  H         8.9879644346       10.8660234739       12.4187876758
  H         9.0359986450       10.9417292874        7.6752042328
  H        10.8258460063       10.8942858685        7.6504761203
  C         9.8739585033        9.3447298324        6.4716000184
  C        10.0427819305        9.3579982009       13.5850427573
  H         8.9549031669        8.7381027251        6.4216174089
  H        10.7589030271        8.6805061616        6.4230188063
  H         9.2296123291        8.6166020354       13.6156156738
  H        11.0159682944        8.8430028112       13.6386852000
  H         9.8896565242        9.9929229360        5.5786282056
  H         9.9466520658        9.9852788263       14.4884699958
      18
 i =       10, E =       -82.4928675891
  O         9.8106081278       11.4922237265       10.0911509505
  C         9.8802089520       10.2731497959       10.0360963568
  O         9.9240875316        9.4837029997       11.1268753328
  O         9.8968016618        9.4986039842        8.9342559326
  C         9.9071180675       10.2983006738        7.6994189088
  C         9.9197355556       10.2822087707       12.3644408924
  H        10.7498345627       10.9979933514       12.3112511888
  H         9.0049831946       10.8718660230       12.3892583823
  H         9.0531830136       10.9684485273        7.7195709377
  H        10.8065225512       10.9151223124        7.7131198095
  C         9.8827667471        9.3558932667        6.5176892947
  C        10.0407136134        9.3756647129       13.5638326837
  H         8.9668888524        8.7458933124        6.4990766010
  H        10.7420069135        8.6860882962        6.4894706837
  H         9.2320852782        8.6202864842       13.5591104892
  H        11.0021771471        8.8352360147       13.5814030793
  H         9.8913484097        9.9642247554        5.6006402933
  H         9.9504209975        9.9707038349       14.4812882562
      18
 i =       11, E =       -82.4934416232
  O         9.8178634716       11.4892471603       10.0692246678
  C         9.8750756143       10.2714257171       10.0545282674
  O         9.9229481490        9.4707226240       11.1397884478
  O         9.8996803384        9.5113737735        8.9408405047
  C         9.9107716296       10.2981656084        7.7099330038
  C         9.9270199841       10.2842183429       12.3602015197
  H        10.7499729383       10.9989414792       12.3022344824
  H         8.9975593828       10.8691714065       12.3844184669
  H         9.0459004681       10.9752519068        7.7250213546
  H        10.8115737379       10.9209337629        7.7226408865
  C         9.8788223592        9.3612402722        6.5227272197
  C        10.0304362822        9.3623058226       13.5486141640
  H         8.9688565590        8.7470281107        6.5166677795
  H        10.7433424600        8.6871800824        6.5088969908
  H         9.2364409141        8.6217029894       13.5590729695
  H        10.9929045865        8.8407684656       13.5706960280
  H         9.8920575729        9.9560854246        5.5979307305
  H         9.9568854334        9.9591737576       14.4706087168
      18
 i =       12, E =       -82.4938165592
  O         9.8225445112       11.4944349017       10.0845756639
  C         9.8656194607       10.2767534324       10.0513101172
  O         9.9215750838        9.4813905918       11.1443000720
  O         9.9024106266        9.5115833231        8.9383141012
  C         9.9126630683       10.2952548129        7.7025271051
  C         9.9200993446       10.2817963492       12.3751671932
  H        10.7587902887       10.9932408112       12.3115061580
  H         8.9881887846       10.8681704165       12.3892495613
  H         9.0398254604       10.9700046210        7.7160964842
  H        10.8180800198       10.9194671273        7.7079132856
  C         9.8769758451        9.3589796693        6.5155952670
  C        10.0399093306        9.3558849490       13.5596157703
  H         8.9620888901        8.7457876210        6.5086325339
  H        10.7518670189        8.6863411522        6.5028024197
  H         9.2242853520        8.6162701265       13.5636177458
  H        11.0025046709        8.8349273010       13.5790226985
  H         9.8920191081        9.9575384431        5.5935537208
  H         9.9552063574        9.9606494946       14.4740125976
      18
 i =       13, E =       -82.4939547098
  O         9.8104835177       11.4961805657       10.0875168041
  C         9.8760971721       10.2790387583       10.0529050619
  O         9.9175918806        9.4802894297       11.1429482340
  O         9.9019045022        9.5180854246        8.9368023332
  C         9.9088308763       10.2989072347        7.6998613265
  C         9.9191213083       10.2783475828       12.3742120791
  H        10.7579244448       10.9908548781       12.3178794524
  H         8.9879733020       10.8660896125       12.3953314583
  H         9.0412333709       10.9702083843        7.7152215094
  H        10.8180248959       10.9203076809        7.7052195571
  C         9.8779004329        9.3533565552        6.5202294097
  C        10.0331880504        9.3549876681       13.5625661242
  H         8.9643154005        8.7465847085        6.5096287911
  H        10.7494789109        8.6874282740        6.5022397887
  H         9.2238168462        8.6110871297       13.5665282362
  H        11.0054147547        8.8307882523       13.5735786262
  H         9.8936072184        9.9537027664        5.5978732125
  H         9.9561427010        9.9579548886       14.4792301146
      18
 i =       14, E =       -82.4941012719
  O         9.8129798341       11.4955262592       10.0857680473
  C         9.8737446535       10.2792796119       10.0529059178
  O         9.9206767015        9.4793309564       11.1414844822
  O         9.9071283855        9.5179620938        8.9397379030
  C         9.9095331492       10.3024306616        7.7065613760
  C         9.9152984793       10.2758327380       12.3714153620
  H        10.7520527374       10.9866408552       12.3190396775
  H         8.9903091742       10.8644046748       12.3966336357
  H         9.0419383771       10.9739140821        7.7169424013
  H        10.8154652844       10.9248990646        7.7064468843
  C         9.8788403056        9.3552309552        6.5265851731
  C        10.0326404597        9.3516923546       13.5568513469
  H         8.9659724796        8.7458349574        6.5215784842
  H        10.7479623407        8.6874223455        6.5135754889
  H         9.2270719779        8.6101374403       13.5643582656
  H        10.9969489415        8.8277920848       13.5686217548
  H         9.8939645016        9.9490516521        5.6004855151
  H         9.9587463226        9.9493775596       14.4776558223
      18
 i =       15, E =       -82.4942083396
  O         9.8147897082       11.4962917458       10.0873040357
  C         9.8756398202       10.2806943857       10.0549266619
  O         9.9194540588        9.4800233269       11.1435228488
  O         9.9085759883        9.5218267242        8.9417334731
  C         9.9132238859       10.3047154489        7.7099456169
  C         9.9158634340       10.2724820859       12.3740267474
  H        10.7489840429       10.9836492235       12.3237246091
  H         8.9861786527       10.8598616889       12.3984009716
  H         9.0409689231       10.9759276814        7.7193403480
  H        10.8139134179       10.9315763597        7.7044542357
  C         9.8791212169        9.3567783682        6.5319655073
  C        10.0324173493        9.3440819587       13.5558329654
  H         8.9661438330        8.7437316136        6.5344564865
  H        10.7493896302        8.6860254624        6.5276829197
  H         9.2235738330        8.6032371137       13.5629971051
  H        10.9932407573        8.8196536038       13.5621428538
  H         9.8936444173        9.9433785588        5.6022792942
  H         9.9608478243        9.9399231168       14.4774531945
